168
 energy: -327.769962536649 gnorm: 0.003090962797 xtb: 6.4.1 (23d549d)
C         2.59779993644064    2.34702603689522    0.01684125827814
C         2.91871065425362    3.68681518083218    0.00688011644340
C         1.69496286560276    4.38608806064340    0.00538833549102
C         0.70365285938566    3.42946556571182    0.01437555267168
O         1.26087318755857    2.20583568152057    0.02063112838070
C        -0.73370517276977    3.42325448755324    0.01717850228520
C        -1.73352996925899    4.37108137974793    0.00750700078307
C        -2.95099872468471    3.66093396088296    0.00582728297588
C        -2.61821306284347    2.32411773839112    0.01420504406820
O        -1.27990829528292    2.19485343314515    0.02029663636786
C        -3.33151742022574    1.07622566792283    0.01684241203251
C        -4.65226681462228    0.68425531424544    0.00701419857605
C        -4.64598665219811   -0.72517816354023    0.00539045372058
C        -3.32187568331337   -1.10537521102938    0.01417295802774
O        -2.54078472159044   -0.01099672793039    0.02047698989801
C        -2.59781287479722   -2.34705624163385    0.01694860129266
C        -2.91872530475209   -3.68684443199847    0.00692495135208
C        -1.69497780699668   -4.38611825693233    0.00526983297280
C        -0.70366664569745   -3.42949742695886    0.01412258853140
O        -1.26088534243150   -2.20586665875611    0.02068055295833
C         0.73369186987366   -3.42328640873765    0.01677060756695
C         1.73351559329624   -4.37110897324305    0.00660306392716
C         2.95098364437579   -3.66096059192450    0.00494043591151
C         2.61819851479158   -2.32414761185471    0.01391400682328
O         1.27989496750730   -2.19488464141697    0.02056652938838
C         3.33150388884955   -1.07625552981676    0.01662654586708
C         4.65225152509640   -0.68428558241936    0.00647320268311
C         4.64597121247964    0.72514717676206    0.00495687676505
C         3.32186240604895    1.10534522307865    0.01397452889445
O         2.54077265162670    0.01096717075814    0.02051879259796
H         3.90233663423718    4.10830645365763    0.00109581415117
H        -1.60672550538385    5.43367333795483    0.00213894849247
H        -5.50910094689008    1.32535766550807    0.00134471429779
H        -3.90235221250214   -4.10833524938726    0.00123260442881
H         1.60671237451008   -5.43369851921757    0.00083091421521
H         5.50908426553527   -1.32538825779793    0.00063610161384
H         1.55827904293108    5.44746939311650   -0.00155576815441
H        -3.93853797855851    4.07327520830314   -0.00104050727536
H        -5.49684899355106   -1.37424572056039   -0.00143770578821
H        -1.55829666315472   -5.44749922744271   -0.00173850821365
H         3.93852160665195   -4.07330005992302   -0.00215520442402
H         5.49683208992231    1.37421406328665   -0.00210514847233
C         1.63454439663788    3.09282425523790    3.25265538277274
C         1.47779318586701    4.46163833514423    3.25026117792690
C         0.08919797578326    4.69934798049794    3.25031326627331
C        -0.51385583735636    3.46041821678246    3.25276324437454
O         0.42782663572730    2.50334482165339    3.25408865072960
C        -1.86119724498232    2.96194888726177    3.25283499497378
C        -3.12499451469118    3.51061944075407    3.25045159907644
C        -4.02516514883204    2.42692520079919    3.25047516181485
C        -3.25376240759878    1.28519228538368    3.25287551087958
O        -1.95406603276862    1.62216227516264    3.25422394391004
C        -3.49575362698588   -0.13087347750923    3.25291064660892
C        -4.60281094237208   -0.95102438855079    3.25053880652981
C        -4.11438264472942   -2.27244006604227    3.25049564857562
C        -2.73991153584128   -2.17524543088365    3.25283488251482
O        -2.38189533451803   -0.88118940809198    3.25420918835629
C        -1.63455022567421   -3.09283944858535    3.25275224206844
C        -1.47779816551084   -4.46165337643434    3.25029258239368
C        -0.08920286520523   -4.69936307894794    3.25015043105010
C         0.51385034170305   -3.46043289889306    3.25257378978171
O        -0.42783246950303   -2.50335934759283    3.25403914900653
C         1.86119210836390   -2.96196372608210    3.25249517537073
C         3.12498901562119   -3.51063498001203    3.24996470330641
C         4.02515962129262   -2.42694072490128    3.24989453288558
C         3.25375726352514   -1.28520731759502    3.25242036980906
O         1.95406176311751   -1.62217708159150    3.25388516540415
C         3.49574798717824    0.13085877139289    3.25244714830858
C         4.60280496521008    0.95100928911283    3.24994588054774
C         4.11437643622714    2.27242476371737    3.24998663067699
C         2.73990545771262    2.17523004751966    3.25254626389311
O         2.38188975082948    0.88117436557814    3.25392825986677
H         2.25902123006341    5.19268205497503    3.24855997168889
H        -3.36747209731311    4.55270696314032    3.24877677417583
H        -5.62652618153290   -0.63997901886258    3.24898382112171
H        -2.25902564943096   -5.19269745427403    3.24866224531514
H         3.36746582140023   -4.55272252058147    3.24825218923727
H         5.62651997308790    0.63996414937780    3.24817565385582
H        -0.40392215330495    5.64878494689089    3.24854355174323
H        -5.09398211914898    2.47460264235389    3.24868198183132
H        -4.69007626207212   -3.17422472102232    3.24872866563105
H         0.40391791653769   -5.64879919767304    3.24827255157254
H         5.09397595108652   -2.47461829340485    3.24799310415317
H         4.69006986735187    3.17420928706096    3.24812965545927
C         2.59635291004086    2.34470565502271    6.49720805424346
C         2.91831690710113    3.68446648025171    6.49967962256027
C         1.69526832546586    4.38364813618292    6.49974901282917
C         0.70418583580398    3.42658005955972    6.49734039735535
O         1.26101492997513    2.20446817330687    6.49590713770497
C        -0.73239653254928    3.42084425998862    6.49744816079577
C        -1.73167031184994    4.36956557700740    6.49998312529540
C        -2.94871003341039    3.65997768498486    6.50002434993812
C        -2.61542365463174    2.32313834997380    6.49754899921660
O        -1.27863019526729    2.19429553648978    6.49610060572337
C        -3.32875350326131    1.07615617558357    6.49758466963730
C        -4.65000454757715    0.68511274319892    6.50011577193607
C        -4.64399503590237   -0.72366884137167    6.50006056891614
C        -3.31961258543361   -1.10344634619797    6.49752591385546
O        -2.53964213301336   -0.01016632909280    6.49612897922006
C        -2.59634938998204   -2.34469280673485    6.49745933273843
C        -2.91831337449358   -3.68445375518937    6.49989725677015
C        -1.69526482530936   -4.38363535634426    6.49977177571793
C        -0.70418254787424   -3.42656708456199    6.49729727528886
O        -1.26101160440192   -2.20445509540108    6.49599552320945
C         0.73239968333278   -3.42083163374955    6.49720847361400
C         1.73167358537145   -4.36955321310389    6.49956509428534
C         2.94871322758770   -3.65996531984315    6.49945730028471
C         2.61542676112618   -2.32312575105437    6.49708140644122
O         1.27863317833788   -2.19428281957956    6.49581557486473
C         3.32875645151058   -1.07614387232133    6.49707526018146
C         4.65000780114924   -0.68510055896320    6.49944795037456
C         4.64399861142671    0.72368100135793    6.49947066934956
C         3.31961602929301    1.10345894143818    6.49712098962766
O         2.53964499391514    0.01017898613598    6.49577364853642
H         3.90246739854808    4.10406471151714    6.50145691488466
H        -1.60296574869198    5.43166238251913    6.50181934433616
H        -5.50545995583053    1.32761603317059    6.50202023698895
H        -3.90246371007967   -4.10405196112873    6.50177455107432
H         1.60296890572079   -5.43165020608543    6.50137278380784
H         5.50546348738959   -1.32760401396376    6.50119833070028
H         1.55675620906790    5.44456170275484    6.50147060142517
H        -3.93675803828458    4.07050005489712    6.50178616240154
H        -5.49353708545581   -1.37408597786947    6.50178215573921
H        -1.55675253311443   -5.44454900128731    6.50141165999000
H         3.93676166761311   -4.07048746895104    6.50105324838599
H         5.49354114291526    1.37409778325365    6.50110617672080
C         1.63680853324320    3.09475900366897    9.73577642375872
C         1.47959935287217    4.46337283148187    9.74476755647137
C         0.09040663080020    4.70145896379859    9.74327583737515
C        -0.51347911649430    3.46317795786670    9.73322748577313
O         0.42882328597856    2.50435694325687    9.72926543824947
C        -1.86171472614467    2.96488335065737    9.73604419242322
C        -3.12556712481652    3.51305587025132    9.74518282194611
C        -4.02636127111111    2.42903182096026    9.74358642953726
C        -3.25593668655891    1.28690384866601    9.73328458269125
O        -1.95441870652486    1.62353831489121    9.72926679555924
C        -3.49852448192833   -0.12984962053657    9.73598803723829
C        -4.60517776272739   -0.95029767778998    9.74505469642137
C        -4.11677534562492   -2.27241852520426    9.74340804441083
C        -2.74245143569593   -2.17626767428363    9.73320059156982
O        -2.38323396468571   -0.88080105941158    9.72930235601438
C        -1.63679374040899   -3.09472329906050    9.73588007326534
C        -1.47958260809350   -4.46333705030725    9.74481717837447
C        -0.09038969940079   -4.70142251405764    9.74313487827254
C         0.51349388454834   -3.46314093728803    9.73300425141852
O        -0.42880955133572   -2.50432059622856    9.72923787886830
C         1.86172974901948   -2.96484609237750    9.73565228705650
C         3.12558375044862   -3.51301975083339    9.74450199393461
C         4.02637783036238   -2.42899535868632    9.74286261949311
C         3.25595097101370   -1.28686672234957    9.73283875812896
O         1.95443261882737   -1.62350079226381    9.72909869766023
C         3.49853893675757    0.12988634888459    9.73557485971353
C         4.60519399917359    0.95033442781514    9.74444035911548
C         4.11679148582313    2.27245505160363    9.74291844092663
C         2.74246561609489    2.17630369653794    9.73293530465431
O         2.38324733724000    0.88083752756776    9.72911236324071
H         2.25971281386279    5.19593950086455    9.75175003934132
H        -3.36992059405699    4.55493833134359    9.75235162089645
H        -5.62965409473505   -0.64098004780077    9.75216873220216
H        -2.25969425128229   -5.19590471023546    9.75189834847954
H         3.36993838848805   -4.55490332620145    9.75149915684484
H         5.62967137835479    0.64101651287701    9.75137738549558
H        -0.40110459416331    5.65202360076133    9.74909754906969
H        -5.09535004353302    2.47866521113995    9.74945211868091
H        -4.69424921770827   -3.17337430897443    9.74925514879245
H         0.40112263826143   -5.65198709131148    9.74887388452457
H         5.09536756646682   -2.47862884011345    9.74855383947647
H         4.69426582579786    3.17341123491958    9.74864498959066
168
 energy: -327.497520947776 gnorm: 0.507140124397 xtb: 6.4.1 (23d549d)
C         2.61942695989392    2.41263252002839    0.07653055436973
C         2.85155023334624    3.72994785941049    0.26228967626315
C         1.63522106143540    4.44918750470597    0.24641489357259
C         0.64040453249744    3.44484152140406    0.01011065743292
O         1.29211982157396    2.24645634718140   -0.14323469813148
C        -0.76750604662355    3.45991905344960    0.05909515983679
C        -1.77832546770494    4.34562292777751    0.15918885491191
C        -3.03604274478870    3.68622119893312    0.05988602627422
C        -2.67543484955030    2.32210363964080   -0.11474939683193
O        -1.30437261849894    2.23701641589636   -0.08603980680613
C        -3.37068086672033    1.10830821687081    0.00564741134562
C        -4.63539657604690    0.71675125246364    0.29259635901738
C        -4.57751419427506   -0.68725326153773    0.25531284045926
C        -3.29351550043238   -1.07828106062600   -0.03510932120736
O        -2.55320600341816    0.04072175827907   -0.14126265442739
C        -2.60596513514060   -2.32734482675456   -0.17921336967732
C        -2.92011992386953   -3.65899832478709   -0.11764371313138
C        -1.72419004942142   -4.40026596905028    0.05357265929029
C        -0.70434549138208   -3.38842824942387    0.09714226514327
O        -1.25225719087831   -2.18980606985193   -0.08151061748566
C         0.76421228773397   -3.36741038228065    0.17465458250350
C         1.74015206642213   -4.26998670111348    0.06324781382900
C         3.00430821641258   -3.58361657346960    0.00009000053115
C         2.67020361970263   -2.26772694254792    0.07672810248634
O         1.32852859740291   -2.14122220153433    0.20537579134381
C         3.27942410221414   -0.96875862545352    0.11478276440401
C         4.62636936888271   -0.60518500146662    0.35765695345149
C         4.62286798803415    0.77807297885689    0.34635790815598
C         3.27329796586301    1.12901226258417    0.14286409238697
O         2.48778165834789    0.05702898503553    0.02082509360493
H         3.76711739131875    4.27999288629665    0.37532076660700
H        -1.71594696219822    5.45020736038065    0.26214966880943
H        -5.63016023443935    1.13929215955670    0.32430793842123
H        -3.88901177071211   -4.19502310677565   -0.01967325874762
H         1.64163848289101   -5.36751909772779   -0.02420930468186
H         5.30238690966558   -1.40438823452013    0.44075415061389
H         1.53330150133560    5.51500002355372    0.22058790998037
H        -3.95120442999752    4.04419171306611    0.28629848272679
H        -5.52121945082442   -1.19127334963620    0.29919904776239
H        -1.65205162777063   -5.40584365996919    0.03150259354057
H         4.02231050199660   -3.97568427297845   -0.13163811142592
H         5.33152240065945    1.61440736185110    0.29117638178206
C         1.68707354676280    3.12013058155087    3.10125075855056
C         1.44108452159028    4.51073310291860    2.92114132092371
C         0.06665004216503    4.67144163296011    2.91928996825038
C        -0.53858460060417    3.45795987485593    3.12373025435017
O         0.47859875459714    2.53013371116472    3.25951827270090
C        -1.84901969606155    2.93092696380966    3.25631731633497
C        -3.13985656509321    3.54109470675139    3.30366163713948
C        -4.01397748426560    2.49323582415133    3.20028103123202
C        -3.23801739461382    1.30440955948371    3.14150967196894
O        -1.95239083671154    1.58122722522431    3.15428848387688
C        -3.52053181118378   -0.08865074863709    3.30741453250783
C        -4.61542111406693   -0.92017994229614    3.55512343516317
C        -4.07178626098849   -2.26578685550109    3.62923168208238
C        -2.69990749529053   -2.18968915619104    3.44160405823004
O        -2.40676348577369   -0.86674935814271    3.26613920391937
C        -1.58110154872712   -3.08442816564468    3.38258940868656
C        -1.38894266067271   -4.49944279224380    3.20756333105942
C        -0.03696945863595   -4.65059457332731    3.07382052988711
C         0.56373349346656   -3.44215938513213    3.22543239640959
O        -0.36595525356896   -2.48807110267034    3.38839611070205
C         1.89221815861327   -2.96785229187737    3.32742491724696
C         3.18298159446375   -3.44889232630178    3.53379795543297
C         4.04199948439394   -2.36859732929995    3.62328022299529
C         3.21855365833134   -1.23922215951881    3.46933311559644
O         1.96058812573311   -1.61559293581533    3.29370225339358
C         3.46993639191826    0.14116662053417    3.43881229301217
C         4.56619005960456    0.94656098930176    3.39739948594231
C         4.22081358827775    2.30933726997214    3.17566913502255
C         2.79993664569237    2.27317550942874    3.10432743908157
O         2.37395479900557    0.93897766242263    3.26023574044045
H         2.11224643605121    5.28945961485460    2.86278419947844
H        -3.23884488564364    4.57840513610623    3.27481626855048
H        -5.69553022919205   -0.57497349688489    3.50896436004052
H        -2.01737964479469   -5.29703025768570    3.07043027643223
H         3.51204492800209   -4.46317504457974    3.52352178519745
H         5.61393008397896    0.69005602150786    3.39547811383355
H        -0.42876685594629    5.62708634347143    2.93070746918491
H        -5.05072551319312    2.44847703158815    3.32246099775185
H        -4.66386431434333   -3.13430814785772    3.70572855549952
H         0.42363001634828   -5.58506441197803    2.83127118413015
H         5.09955367988338   -2.28114609913797    3.67196269236689
H         4.82363918340431    3.14235588670314    3.23109496497786
C         2.61796747103031    2.30301007234632    6.48189035126474
C         2.87503188229296    3.68302799747910    6.30977152370815
C         1.61049050824521    4.31062808007038    6.17689062659392
C         0.66204284813977    3.30742863029668    6.29985058599089
O         1.27983434167536    2.12444201853215    6.51719223901046
C        -0.76114148523015    3.27562591972666    6.29007705192131
C        -1.74284198679885    4.22991536953067    6.34915000601423
C        -2.96589206916827    3.61986808806010    6.53537567275581
C        -2.62659950488592    2.22512373986943    6.52379503687112
O        -1.30790659223841    2.08731793411498    6.43383573343013
C        -3.39054422211765    1.02151997112796    6.46933260987288
C        -4.72353804127392    0.57513159812789    6.38352228404985
C        -4.61397198486936   -0.77546650450868    6.51457598961175
C        -3.27766718856645   -1.11080700824813    6.59496957037108
O        -2.53267547471040   -0.03421234944279    6.55307282982687
C        -2.65442235562014   -2.42459175706868    6.50116585842752
C        -3.00527145864215   -3.68945656771256    6.19127289296512
C        -1.80124201680534   -4.45604395231272    6.16499897987335
C        -0.81256571852468   -3.55914116992637    6.52736684679657
O        -1.29330164492600   -2.34287011114237    6.72134939592624
C         0.62960769619252   -3.58995337208488    6.53667908327054
C         1.67980540660743   -4.51865663708951    6.47872279374077
C         2.87601550809321   -3.71461617333505    6.39357141578497
C         2.51809207737123   -2.37404853764415    6.45968643304210
O         1.15378947166376   -2.31746292835761    6.45699885716526
C         3.27309209693015   -1.13668273816895    6.58738325646808
C         4.62317878688203   -0.83138223856081    6.60439007137759
C         4.64507229269411    0.56489732313984    6.57780154761629
C         3.28698751308746    1.05207216743858    6.53907355746113
O         2.48396757445202   -0.04053547804208    6.57752815907451
H         3.90961811325992    3.98964342007122    6.55606677081003
H        -1.59121169002337    5.33938788593796    6.23636799161749
H        -5.60413385018760    1.04488036497014    6.27837685763073
H        -4.06045239610192   -4.02845458240836    6.10794310933663
H         1.56922769559264   -5.51790381451182    6.49483094333202
H         5.41773543242865   -1.43982931238178    6.57145699304214
H         1.25812618434363    5.35461224204795    6.11681539249636
H        -3.88269545187040    4.09256838203168    6.57847131653410
H        -5.50199537932804   -1.44005409798777    6.44857476979699
H        -1.69692385424955   -5.47005049630913    5.91065651612476
H         3.90759216113645   -4.09798651059006    6.32969779457754
H         5.49935324047225    1.10913945911403    6.72044885101813
C         1.68987426807190    3.15023933580907    9.67143802855703
C         1.60990471785715    4.52789577931464    9.41417458698654
C         0.21997150329488    4.80295050741023    9.42886983292275
C        -0.44597926291391    3.63607281543597    9.70269927475803
O         0.47353909283315    2.63127890573049    9.81827174860307
C        -1.80729037420847    3.12216605312660    9.83683753747587
C        -3.10226973882466    3.60406981920462    9.81890481566282
C        -3.93237177221960    2.50316178295232    9.65182217716898
C        -3.10700436541961    1.32141797209746    9.59524597066889
O        -1.84873661770623    1.71392918010091    9.76727550451553
C        -3.38084432061041   -0.10729348481031    9.54992060556217
C        -4.55851658714597   -0.88874004310088    9.73253762326834
C        -4.20378219466751   -2.22399044619038    9.86123815783448
C        -2.77330484154111   -2.27045715151395    9.77322196079704
O        -2.32507751346607   -0.97800104830227    9.55382515644223
C        -1.68636660412709   -3.16459125938880    9.73302680324145
C        -1.42673709591271   -4.51245534584398    9.75331073801971
C        -0.05614325155063   -4.71100812125290    9.58465034287827
C         0.52970488325766   -3.45449954531446    9.45418761992037
O        -0.47105192240723   -2.53448040513722    9.50541262386042
C         1.87052971092821   -2.94967282911668    9.52616447471868
C         3.18070897842571   -3.53909436999252    9.57536638939249
C         4.01693477224497   -2.45106626255214    9.85089023468048
C         3.27523893542050   -1.28344745923385    9.94167703430708
O         1.92964548152090   -1.61789204128485    9.77056008021385
C         3.52602228891173    0.14967132623716    9.92260682580088
C         4.64046856935658    0.94609902061414    9.59390196513830
C         4.18162420041341    2.23199822365587    9.49547877101375
C         2.79386754273140    2.18727502672995    9.73506553452009
O         2.44291065948664    0.87951817488361   10.02948050902827
H         2.41753991651391    5.12681164582311    9.32220466614965
H        -3.44780923422429    4.56416430855896    9.78335570004509
H        -5.50131825153811   -0.58370329978380    9.91871415820876
H        -2.20180487092476   -5.27846776802135    9.88317461660245
H         3.30762446883268   -4.54576715648020    9.47648872895305
H         5.61615175660983    0.66047115572091    9.51842393830839
H        -0.26245164577913    5.73569630134115    9.41675937245294
H        -4.97469379615215    2.54579974331542    9.60534333386334
H        -4.85877974860707   -3.01444287079288   10.01346862879146
H         0.47980229841180   -5.55256437180788    9.62074399438838
H         5.12561752143459   -2.36065911237151    9.82977843610674
H         4.74570173587377    3.07805517667631    9.44793782233640
168
 energy: -327.555361461529 gnorm: 0.393201290221 xtb: 6.4.1 (23d549d)
C         2.48158642272428    2.45884615857367    0.12813853480580
C         2.76014494980668    3.78349824504945    0.24428846328830
C         1.57287512516258    4.51241017366657    0.15947609958418
C         0.60290918383748    3.55449521244415   -0.11447382540706
O         1.18201762847969    2.32060532027077   -0.06378205442250
C        -0.84436196488398    3.54085465270142   -0.15468789068703
C        -1.79577605327813    4.40722161866322    0.15606259655240
C        -3.01841996600112    3.67755782177546    0.26890875289651
C        -2.68105736635635    2.34673149800848   -0.01636002610262
O        -1.32626651199896    2.27989963902519   -0.22034427050365
C        -3.34377605450893    1.08475337105869   -0.04038103086873
C        -4.56359816100356    0.66915456890500    0.36816516407911
C        -4.58801805920780   -0.76193354089004    0.28851461964015
C        -3.33733464740568   -1.10207697473575   -0.10383440637179
O        -2.59679071672526    0.00126574897712   -0.39080070990394
C        -2.58840222005754   -2.28720887279902    0.01587189626507
C        -2.91406401028869   -3.60958919457064   -0.01574625218440
C        -1.68128862678633   -4.31778821083945    0.01382880318044
C        -0.67952370345122   -3.33269504154057   -0.00846737717462
O        -1.24281954701647   -2.12009150825214    0.08278485681863
C         0.72061177670145   -3.35810699234787   -0.01162625898076
C         1.70422480083624   -4.27278467800374   -0.06084459421293
C         2.89921398699072   -3.53386650501208    0.16762402520553
C         2.53015026145471   -2.23685158900364    0.29130207467790
O         1.22529749935223   -2.11699385511468    0.22663077069715
C         3.30298968894897   -0.96016377287033    0.30896064014346
C         4.64363426070514   -0.49873374553466    0.57243461370195
C         4.63756091275199    0.89456382691906    0.50341141797477
C         3.30143719115675    1.28614217373066    0.17464293779573
O         2.61422395186311    0.13457666451641    0.04176549198517
H         3.74071499134499    4.18803155076535    0.46508466357398
H        -1.69145452857960    5.46541977872283    0.25025592669064
H        -5.50534946567450    1.11451404174046    0.74881284212977
H        -3.88942350475322   -4.08153076465106   -0.10408223768073
H         1.69244643861835   -5.38821966348751   -0.20260121547676
H         5.47249659564799   -1.18676955687821    0.77658204247736
H         1.53396912235966    5.58168712264409    0.25726774792850
H        -3.97637852551193    4.20014075428485    0.43508108326567
H        -5.45288281253247   -1.33436518162953    0.61901406625881
H        -1.43969185714451   -5.37965254134660    0.05636620648093
H         3.94216594809936   -3.88534061454200    0.17341550769378
H         5.41778810053834    1.64759775565723    0.78995075277318
C         1.65571792969326    3.17076013200248    3.13882162254396
C         1.49299356297771    4.51622436982551    2.96903031660890
C         0.10337956605738    4.70299311114440    2.87077757564517
C        -0.49665379721912    3.49987699178003    2.94859650422441
O         0.46032237695625    2.55925392903252    3.14166232946872
C        -1.82003734395559    2.98982453907961    3.08967167908712
C        -3.10549100556203    3.48804005545460    3.22183546505928
C        -3.96612345592252    2.39073701779011    3.33053899039448
C        -3.19579059940942    1.24498113456346    3.32359194234049
O        -1.91912365996207    1.60604281277056    3.16593421914048
C        -3.40120278321423   -0.20177807670530    3.43066552117526
C        -4.48346190582865   -1.01549928456671    3.62751471426933
C        -3.98578604546068   -2.34667838936854    3.61515909881041
C        -2.68180520998888   -2.16521092727704    3.35053341969060
O        -2.35220452329201   -0.90224871814085    3.23365572362000
C        -1.57063506923428   -3.01812220841936    3.32536392781647
C        -1.46141173897000   -4.38283076616650    3.04263307534935
C        -0.08560261607150   -4.64822626259349    3.06186373245673
C         0.56546358627594   -3.44973457396871    3.33196024007066
O        -0.35274713287923   -2.44661270205700    3.51661476542954
C         1.87011362608492   -2.86087908503211    3.41380155504141
C         3.13073147427197   -3.41758393056615    3.60995981839211
C         4.02742416019438   -2.35847227746169    3.71551446611884
C         3.29725590637952   -1.18739729646649    3.49196548585321
O         1.99584147737303   -1.47528043899566    3.35518930183342
C         3.55353124148929    0.26478388097059    3.47066969111705
C         4.61350646163324    1.10861507032204    3.52234131562269
C         4.11920618653307    2.42134273816562    3.30655955350367
C         2.79436982507187    2.28562909125976    3.23413850644796
O         2.41841318739477    0.98823798539226    3.34100733609791
H         2.19168714580269    5.25986798229070    2.76406870604893
H        -3.33368864235261    4.51667471222963    3.14195304391595
H        -5.52179866434713   -0.66930365427043    3.72450114959684
H        -2.26924853518223   -5.05906400523832    2.79463065288127
H         3.37544064532474   -4.46197114489374    3.69491334933485
H         5.64680264618352    0.89968932289222    3.62586117109205
H        -0.35533787676897    5.64188974123464    2.78654228183270
H        -4.99848680426272    2.39538685758012    3.50040840261452
H        -4.51733276517866   -3.23004778013582    3.86779950161881
H         0.27583665373851   -5.64066192184925    2.98670730406353
H         5.05417235203992   -2.39773207249449    4.03006681979434
H         4.64164614676870    3.31715798761474    3.23645552362391
C         2.53225963987731    2.19194499122854    6.42898263533300
C         2.92340085471407    3.45226666577584    6.16690280852717
C         1.71547532190361    4.16999379722092    6.09013988202762
C         0.68335539823336    3.24904965005599    6.23512336668887
O         1.23885743888129    2.04790763227710    6.41123170934621
C        -0.78638058289857    3.23944371408701    6.23575290147402
C        -1.80051605769337    4.17839637840263    6.29659433669754
C        -3.03036476762349    3.51741236515896    6.31973696249414
C        -2.66689198382260    2.14335476417285    6.36734493001266
O        -1.36140616197078    2.05088565694251    6.29222731992717
C        -3.39704985259408    0.93309949023988    6.56631603985070
C        -4.71058354217570    0.57311515749467    6.48693303687276
C        -4.74446959688119   -0.80720323604116    6.51894387987291
C        -3.42815030893473   -1.28702213014087    6.65107092483884
O        -2.65746796810517   -0.18686642850272    6.70730723955952
C        -2.75054478062459   -2.55164890221526    6.53790766708558
C        -2.99981601652695   -3.83231152969030    6.17807774971674
C        -1.76083596017860   -4.51746832056273    6.06735481804672
C        -0.80206664361997   -3.61053701773160    6.41830430183272
O        -1.40194419481345   -2.43844161619820    6.71853665153871
C         0.62260667137556   -3.60705967079000    6.43936684947965
C         1.67875457019440   -4.52097865172958    6.33240651220889
C         2.85240268014445   -3.79352753035974    6.53166837843715
C         2.46691729571902   -2.46605767802517    6.65833133139175