168
 energy: -327.769962536649 gnorm: 0.003090962797 xtb: 6.4.1 (23d549d)
C         2.59779993644050    2.34702603689583    0.01684125827822
C         2.91871065425347    3.68681518083277    0.00688011644354
C         1.69496286560263    4.38608806064398    0.00538833549121
C         0.70365285938550    3.42946556571246    0.01437555267182
O         1.26087318755843    2.20583568152116    0.02063112838078
C        -0.73370517276988    3.42325448755387    0.01717850228538
C        -1.73352996925914    4.37108137974853    0.00750700078333
C        -2.95099872468489    3.66093396088354    0.00582728297611
C        -2.61821306284361    2.32411773839173    0.01420504406834
O        -1.27990829528311    2.19485343314572    0.02029663636796
C        -3.33151742022590    1.07622566792341    0.01684241203261
C        -4.65226681462247    0.68425531424604    0.00701419857616
C        -4.64598665219830   -0.72517816353965    0.00539045372062
C        -3.32187568331352   -1.10537521102877    0.01417295802773
O        -2.54078472159063   -0.01099672792982    0.02047698989804
C        -2.59781287479736   -2.34705624163327    0.01694860129259
C        -2.91872530475226   -3.68684443199791    0.00692495135194
C        -1.69497780699686   -4.38611825693175    0.00526983297260
C        -0.70366664569757   -3.42949742695828    0.01412258853125
O        -1.26088534243169   -2.20586665875554    0.02068055295826
C         0.73369186987353   -3.42328640873708    0.01677060756678
C         1.73351559329610   -4.37110897324247    0.00660306392691
C         2.95098364437566   -3.66096059192393    0.00494043591127
C         2.61819851479144   -2.32414761185413    0.01391400682313
O         1.27989496750716   -2.19488464141640    0.02056652938827
C         3.33150388884943   -1.07625552981617    0.01662654586698
C         4.65225152509625   -0.68428558241879    0.00647320268301
C         4.64597121247949    0.72514717676266    0.00495687676501
C         3.32186240604883    1.10534522307924    0.01397452889445
O         2.54077265162656    0.01096717075872    0.02051879259793
H         3.90233663423706    4.10830645365821    0.00109581415133
H        -1.60672550538398    5.43367333795543    0.00213894849279
H        -5.50910094689024    1.32535766550867    0.00134471429795
H        -3.90235221250230   -4.10833524938670    0.00123260442865
H         1.60671237450997   -5.43369851921700    0.00083091421490
H         5.50908426553514   -1.32538825779735    0.00063610161368
H         1.55827904293095    5.44746939311711   -0.00155576815415
H        -3.93853797855869    4.07327520830373   -0.00104050727507
H        -5.49684899355121   -1.37424572055981   -0.00143770578818
H        -1.55829666315486   -5.44749922744215   -0.00173850821391
H         3.93852160665182   -4.07330005992243   -0.00215520442430
H         5.49683208992219    1.37421406328723   -0.00210514847236
C         1.63454439663808    3.09282425523729    3.25265538277282
C         1.47779318586725    4.46163833514364    3.25026117792704
C         0.08919797578345    4.69934798049735    3.25031326627343
C        -0.51385583735610    3.46041821678181    3.25276324437461
O         0.42782663572750    2.50334482165279    3.25408865072964
C        -1.86119724498209    2.96194888726112    3.25283499497387
C        -3.12499451469093    3.51061944075347    3.25045159907657
C        -4.02516514883176    2.42692520079861    3.25047516181492
C        -3.25376240759857    1.28519228538307    3.25287551087961
O        -1.95406603276835    1.62216227516208    3.25422394391008
C        -3.49575362698564   -0.13087347750978    3.25291064660894
C        -4.60281094237176   -0.95102438855139    3.25053880652982
C        -4.11438264472918   -2.27244006604282    3.25049564857555
C        -2.73991153584102   -2.17524543088421    3.25283488251477
O        -2.38189533451776   -0.88118940809252    3.25420918835629
C        -1.63455022567397   -3.09283944858588    3.25275224206839
C        -1.47779816551064   -4.46165337643486    3.25029258239358
C        -0.08920286520497   -4.69936307894851    3.25015043104995
C         0.51385034170323   -3.46043289889359    3.25257378978161
O        -0.42783246950278   -2.50335934759338    3.25403914900649
C         1.86119210836411   -2.96196372608265    3.25249517537066
C         3.12498901562139   -3.51063498001260    3.24996470330632
C         4.02515962129277   -2.42694072490182    3.24989453288547
C         3.25375726352534   -1.28520731759558    3.25242036980901
O         1.95406176311765   -1.62217708159205    3.25388516540411
C         3.49574798717847    0.13085877139230    3.25244714830859
C         4.60280496521026    0.95100928911226    3.24994588054778
C         4.11437643622732    2.27242476371675    3.24998663067701
C         2.73990545771280    2.17523004751907    3.25254626389314
O         2.38188975082963    0.88117436557759    3.25392825986678
H         2.25902123006358    5.19268205497442    3.24855997168903
H        -3.36747209731288    4.55270696313972    3.24877677417597
H        -5.62652618153266   -0.63997901886316    3.24898382112170
H        -2.25902564943072   -5.19269745427458    3.24866224531498
H         3.36746582140041   -4.55272252058200    3.24825218923711
H         5.62651997308808    0.63996414937727    3.24817565385582
H        -0.40392215330469    5.64878494689030    3.24854355174341
H        -5.09398211914871    2.47460264235335    3.24868198183143
H        -4.69007626207190   -3.17422472102286    3.24872866563098
H         0.40391791653789   -5.64879919767355    3.24827255157238
H         5.09397595108672   -2.47461829340541    3.24799310415307
H         4.69006986735203    3.17420928706037    3.24812965545935
C         2.59635291004090    2.34470565502210    6.49720805424341
C         2.91831690710115    3.68446648025116    6.49967962256017
C         1.69526832546590    4.38364813618232    6.49974901282909
C         0.70418583580399    3.42658005955917    6.49734039735529
O         1.26101492997520    2.20446817330627    6.49590713770494
C        -0.73239653254925    3.42084425998806    6.49744816079567
C        -1.73167031184993    4.36956557700681    6.49998312529525
C        -2.94871003341041    3.65997768498430    6.50002434993801
C        -2.61542365463175    2.32313834997323    6.49754899921654
O        -1.27863019526731    2.19429553648918    6.49610060572332
C        -3.32875350326131    1.07615617558297    6.49758466963724
C        -4.65000454757719    0.68511274319835    6.50011577193599
C        -4.64399503590241   -0.72366884137229    6.50006056891614
C        -3.31961258543360   -1.10344634619859    6.49752591385548
O        -2.53964213301338   -0.01016632909338    6.49612897922005
C        -2.59634938998203   -2.34469280673551    6.49745933273845
C        -2.91831337449358   -3.68445375519000    6.49989725677021
C        -1.69526482530938   -4.38363535634485    6.49977177571805
C        -0.70418254787418   -3.42656708456268    6.49729727528895
O        -1.26101160440194   -2.20445509540171    6.49599552320949
C         0.73239968333281   -3.42083163375025    6.49720847361407
C         1.73167358537148   -4.36955321310450    6.49956509428545
C         2.94871322758777   -3.65996531984376    6.49945730028485
C         2.61542676112620   -2.32312575105502    6.49708140644130
O         1.27863317833795   -2.19428281958018    6.49581557486478
C         3.32875645151062   -1.07614387232193    6.49707526018149
C         4.65000780114932   -0.68510055896384    6.49944795037460
C         4.64399861142678    0.72368100135735    6.49947066934960
C         3.31961602929307    1.10345894143753    6.49712098962767
O         2.53964499391524    0.01017898613539    6.49577364853643
H         3.90246739854815    4.10406471151652    6.50145691488457
H        -1.60296574869195    5.43166238251857    6.50181934433599
H        -5.50545995583051    1.32761603317003    6.50202023698888
H        -3.90246371007969   -4.10405196112936    6.50177455107442
H         1.60296890572085   -5.43165020608608    6.50137278380803
H         5.50546348738964   -1.32760401396438    6.50119833070037
H         1.55675620906794    5.44456170275428    6.50147060142502
H        -3.93675803828458    4.07050005489649    6.50178616240137
H        -5.49353708545584   -1.37408597787011    6.50178215573919
H        -1.55675253311437   -5.44454900128796    6.50141165999014
H         3.93676166761319   -4.07048746895167    6.50105324838613
H         5.49354114291530    1.37409778325302    6.50110617672080
C         1.63680853324307    3.09475900366957    9.73577642375857
C         1.47959935287211    4.46337283148244    9.74476755647113
C         0.09040663080009    4.70145896379919    9.74327583737490
C        -0.51347911649440    3.46317795786728    9.73322748577296
O         0.42882328597848    2.50435694325745    9.72926543824936
C        -1.86171472614477    2.96488335065794    9.73604419242307
C        -3.12556712481659    3.51305587025191    9.74518282194591
C        -4.02636127111119    2.42903182096084    9.74358642953711
C        -3.25593668655902    1.28690384866660    9.73328458269117
O        -1.95441870652491    1.62353831489181    9.72926679555916
C        -3.49852448192842   -0.12984962053594    9.73598803723828
C        -4.60517776272745   -0.95029767778940    9.74505469642140
C        -4.11677534562500   -2.27241852520366    9.74340804441093
C        -2.74245143569602   -2.17626767428304    9.73320059156991
O        -2.38323396468577   -0.88080105941101    9.72930235601440
C        -1.63679374040909   -3.09472329905988    9.73588007326549
C        -1.47958260809358   -4.46333705030665    9.74481717837470
C        -0.09038969940086   -4.70142251405703    9.74313487827279
C         0.51349388454819   -3.46314093728741    9.73300425141870
O        -0.42880955133578   -2.50432059622795    9.72923787886841
C         1.86172974901938   -2.96484609237688    9.73565228705666
C         3.12558375044852   -3.51301975083278    9.74450199393481
C         4.02637783036223   -2.42899535868572    9.74286261949327
C         3.25595097101359   -1.28686672234895    9.73283875812904
O         1.95443261882726   -1.62350079226321    9.72909869766030
C         3.49853893675745    0.12988634888518    9.73557485971354
C         4.60519399917345    0.95033442781575    9.74444035911545
C         4.11679148582304    2.27245505160419    9.74291844092654
C         2.74246561609476    2.17630369653851    9.73293530465422
O         2.38324733723988    0.88083752756834    9.72911236324069
H         2.25971281386267    5.19593950086514    9.75175003934105
H        -3.36992059405707    4.55493833134417    9.75235162089618
H        -5.62965409473513   -0.64098004780018    9.75216873220217
H        -2.25969425128238   -5.19590471023484    9.75189834847982
H         3.36993838848794   -4.55490332620085    9.75149915684510
H         5.62967137835468    0.64101651287761    9.75137738549556
H        -0.40110459416338    5.65202360076190    9.74909754906936
H        -5.09535004353310    2.47866521114057    9.74945211868074
H        -4.69424921770835   -3.17337430897382    9.74925514879259
H         0.40112263826134   -5.65198709131087    9.74887388452488
H         5.09536756646671   -2.47862884011284    9.74855383947664
H         4.69426582579774    3.17341123492018    9.74864498959052
168
 energy: -327.164948297473 gnorm: 0.700326370568 xtb: 6.4.1 (23d549d)
C         2.60885798983485    2.40111030117101    0.07267346975117
C         2.85610838710218    3.72385237761337   -0.08251792923517
C         1.56579998368400    4.35757105252261   -0.18797020572414
C         0.60099494189639    3.38059753640709   -0.12799345520000
O         1.24592771232058    2.20298403272227    0.14960674784974
C        -0.87970344311915    3.28676319071595   -0.25106464831650
C        -1.78248904691617    4.27060708078322   -0.07199095577864
C        -3.08223511636864    3.70727403683491    0.00053519178548
C        -2.74287380600169    2.33208935170347   -0.20512750145433
O        -1.41102827017077    2.07690046717726   -0.30099854208773
C        -3.52172542733691    1.13748842724477   -0.20463867432264
C        -4.83345920398774    0.73484102676285   -0.15031735078679
C        -4.79727736379105   -0.70922200457722    0.12149268678461
C        -3.38023076809590   -1.06435857513167    0.14974566158875
O        -2.72203433425049    0.11753495085536   -0.12157303495948
C        -2.64899582153197   -2.27010403286298    0.16670647901572
C        -2.93509481557304   -3.67061833896379    0.22725648715791
C        -1.83279133071597   -4.38966405594298   -0.08716298899376
C        -0.80510052830329   -3.41192011575225   -0.28393720037751
O        -1.34846191203012   -2.16535323353643   -0.24288244171494
C         0.65185030173880   -3.42233874190808   -0.09170374241269
C         1.63402388831903   -4.32792490873623    0.19630857190093
C         2.84918961180457   -3.75263596229943    0.37333220629004
C         2.56057101996722   -2.31533597114012    0.12269965439053
O         1.24594822596325   -2.16141366711067   -0.12254061702414
C         3.32810339034016   -1.07808502975902    0.25142340809920
C         4.52883838139758   -0.58500340239980    0.61829036511071
C         4.60629690662501    0.81152380467393    0.56034918168687
C         3.37716325960833    1.17217727642668    0.16098323083682
O         2.61230860937451    0.06016298560592   -0.04342191364366
H         3.91555891981601    3.87435291946574    0.24387010990458
H        -1.66383309275803    5.37484249869279    0.04109099934497
H        -5.62811893931264    1.36885663832724   -0.20501911864081
H        -3.89530224173560   -4.10727158995253    0.53075763523702
H         1.33408636576910   -5.35413224759078   -0.12513490499566
H         5.52442700670292   -1.05858866214027    0.77839445172603
H         1.21187057678979    5.35692479196592    0.14112106448660
H        -3.90301978026467    4.21332940694658    0.19742790093068
H        -5.51037659395749   -1.36767257331103    0.33666161886469
H        -1.78661274088263   -5.42338125854315    0.06650310492622
H         3.82215725499935   -3.97563500735302    0.42692921913142
H         5.51794037914676    1.40653838735906    0.71346223396026
C         1.63329440664920    3.00626552198471    3.18451621582419
C         1.47585740001637    4.37702102831773    3.23922027511466
C         0.11977957879214    4.63096423093909    3.29372954541586
C        -0.51301031628838    3.41868453051583    3.33539435435904
O         0.38257115013854    2.47450178890780    3.34330623107622
C        -1.90835838150400    2.97362482713388    3.11616687003252
C        -3.15275116804053    3.57795469997490    3.26233883640173
C        -4.07528676264743    2.52779853200004    3.42870757135505
C        -3.31300624534387    1.34300624557424    3.17358073116875
O        -2.00509616688361    1.63226052102338    2.99256522460202
C        -3.62442207644612   -0.11091961674282    3.13156326713501
C        -4.62709438742074   -1.01138369394410    3.11256352328160
C        -4.08042964835053   -2.30526434959530    3.28776977146728
C        -2.70454887796237   -2.16399368714275    3.28657019824257
O        -2.50631444437418   -0.82805411278689    3.25924551501785
C        -1.50098598761082   -3.00463258967186    3.15103492705363
C        -1.33942276746682   -4.38491535247066    2.90903966152279
C         0.01514659008048   -4.63455339950659    2.74267852310281
C         0.66578244057982   -3.40487723869013    2.95982477985323
O        -0.23954363041425   -2.44884822601714    3.23071715833607
C         2.02933175467477   -2.86059429846490    2.99155497371250
C         3.21763312022356   -3.46776799024886    3.16925578832804
C         4.09634968338224   -2.39304982451816    3.51984328245788
C         3.42884783747680   -1.24967643146477    3.53325230574861
O         2.12477094279402   -1.54607558363709    3.11611051604325
C         3.58656639005644    0.17212089831992    3.64126039248955
C         4.75946595215174    0.98647052524777    3.40977349259503
C         4.20164659369819    2.29437053198052    3.20159380982659
C         2.81545651839306    2.15362036822584    3.21298379624020
O         2.46921504470922    0.86659163995891    3.50125253060578
H         2.32000346721879    5.07022669482840    3.36461284927936
H        -3.13433055127664    4.71797003515540    3.56494652388915
H        -5.72341695669595   -0.61486202805108    2.97928587402515
H        -2.05495921404870   -5.14924380804533    3.06279262215420
H         3.49834382060766   -4.47475519901591    3.35413011278593
H         5.61537719983535    0.36530947208747    3.25836041133341
H        -0.13501804464516    5.68166626472309    3.01122634386842
H        -5.01033670588841    2.47232363744964    3.73307879368972
H        -4.43313347824587   -3.34184903070884    3.17924030025348
H         0.61047098836946   -5.52963730048693    2.84615454803521
H         5.16147664400045   -2.41196054342596    3.86127402204412
H         4.58656842822557    3.32863175568482    3.05949455433986
C         2.48105026238891    2.24832824391598    6.38116330356013
C         2.80720936607812    3.65396229249491    6.35938900485568
C         1.57845753599352    4.28935564998219    6.50841303640548
C         0.57261292639259    3.37234365501482    6.58353116747675
O         1.18034956182400    2.10464645973260    6.53004602844045
C        -0.80040754511388    3.38764407204052    6.41482162928121
C        -1.78263823868904    4.47706713748605    6.18291905971022
C        -2.98587141038549    3.85490440565786    6.16303846424472
C        -2.73464017317077    2.46500539954629    6.43054962585730
O        -1.41296204522845    2.22056805704747    6.50002366217099
C        -3.43322761760558    1.20476235972075    6.58422888369556
C        -4.68088118207379    0.63561812389972    6.54231153271616
C        -4.67873128780147   -0.70297166661057    6.44638161835977
C        -3.27379971669201   -0.97911674556226    6.40441383408830
O        -2.58759079924214    0.07721246191005    6.56841489550471
C        -2.60780711377278   -2.23111035440251    6.29331327791682
C        -2.98224501434577   -3.53186596716146    6.33345914684957
C        -1.73642753623962   -4.28779368543067    6.31674556721117
C        -0.74681123863593   -3.37363791662380    6.34869081861043
O        -1.25080690407014   -2.13062002061549    6.33092199461872
C         0.67121867024991   -3.39837667754594    6.44053793712434
C         1.56108485579662   -4.38110724344374    6.71831871140522
C         2.78736325369550   -3.74054532509302    6.93063427909386
C         2.54818711302331   -2.42826404348924    6.71245270031794
O         1.21898380119262   -2.21368680723782    6.36695420817135
C         3.35665928604431   -1.17736438708509    6.72926687705791
C         4.51534832820692   -0.76350254085657    6.29805543586567
C         4.56706638118813    0.64839221855372    6.16431104308178
C         3.22470918577362    1.06946021725389    6.51649830401068
O         2.53335534418438   -0.09900488726453    6.98875320284479
H         3.60314747573523    4.31077075100807    6.32434258540390
H        -1.63227040701915    5.48808343059296    6.46021500657831
H        -5.70644661596229    1.10182983664222    6.21107148578657
H        -3.88611784582153   -4.15570141887765    6.45093106339681
H         1.38959788785881   -5.47822144502871    6.42778381363762
H         5.40392513044368   -1.36396657778853    6.08518970823615
H         1.59146637640555    5.42580052385478    6.28596368005284
H        -3.86581539125536    4.35394707835092    6.09160577572516
H        -5.43840211153370   -1.41767243902015    6.60221635137812
H        -1.78677932290466   -5.37592610025744    6.03646486687224
H         3.77497183247601   -4.11158930966929    7.08141641114762
H         5.27553011027722    1.36177513992196    6.15182391753253
C         1.78807704586061    3.10492125828175    9.65302287194373
C         1.55485210607478    4.40310439527510    9.86460638695242
C         0.14401783913954    4.67095411464952   10.11934324226828
C        -0.40576411558869    3.38084950893402    9.89945431978520
O         0.60985152001244    2.47186308550588    9.75163568646286
C        -1.71962165678117    2.91309207511436    9.68977577462762
C        -2.97116768626060    3.36561746802838    9.35268326983786
C        -3.91936578656002    2.26868829060605    9.27786358526382
C        -3.14718856031884    1.19519609557174    9.58952892906336
O        -1.86570052885838    1.54709617759886    9.88536727141830
C        -3.39588703498878   -0.26739489182123    9.59283506202095
C        -4.49209421986743   -1.01588624390854    9.62155550720648
C        -4.07991103852541   -2.30906126832901    9.85249283007997
C        -2.75646594226510   -2.32647945844489    9.96099324159243
O        -2.34603014479538   -1.01223392643923    9.83535753024313
C        -1.57157889933200   -3.12647064295121    9.82448997705294
C        -1.36077462241043   -4.54880329858448    9.73418697134704
C        -0.00844481179238   -4.64739614519566   10.07544786496287
C         0.56110003918612   -3.39564390552062   10.24070410983056
O        -0.46942428649662   -2.47224606239828   10.02111540323315
C         1.87103919597232   -2.88215511405621   10.17944867441890
C         3.09828256607185   -3.43832154293640   10.06462716335287
C         4.08682510501080   -2.53236628651146    9.72072698807850
C         3.30180096601085   -1.32875994442131    9.63911409088869
O         1.99487729949121   -1.54846542695541    9.92372750107605
C         3.66804668632934    0.13018933064611    9.53868206087120
C         4.74448346156158    0.92751292848239    9.35446117767961
C         4.36343885507883    2.26986695837938    9.37912596091593
C         3.00209023417865    2.19347624892846    9.57726280056272
O         2.64078017848291    0.93215639287871    9.72381525376929
H         2.17808703133262    5.25296539810898   10.14967803570239
H        -3.30806194044357    4.44125982402146    9.36880364612803
H        -5.55528880517689   -0.79262875921746    9.69193713712888
H        -1.83177518707726   -5.49984837406942    9.80538332791991
H         3.61737734509056   -4.46472475208161   10.16930159204720
H         5.76263241036490    0.40173607600379    9.48970356477141
H        -0.27738310354291    5.51212587065858   10.39963112864077
H        -5.04800732349154    2.21666517889769    9.12965506852317
H        -4.84824383982197   -3.11170851945886    9.59561597593484
H         0.25082546715355   -5.70135626901618   10.11349900358526
H         5.09648671669513   -2.76635898563415    9.63170161935092
H         4.82550184547515    3.27854793354396    9.54932559339363
168
 energy: -327.214633009787 gnorm: 0.593544144851 xtb: 6.4.1 (23d549d)
C         2.50272625993508    2.34182710022071    0.05112822066489
C         2.69021614192586    3.71003748840472    0.06994412641448
C         1.44974085277233    4.33447546848161   -0.14238051028348
C         0.53572876933374    3.31023640650488   -0.22797829922098
O         1.17407447744461    2.11820250238569   -0.17686839671544
C        -0.86363354924106    3.36943145610447   -0.25874179072878
C        -1.86381854805236    4.31039903456331    0.01313728452361
C        -3.09067942719326    3.66345777573761   -0.22781200583431
C        -2.81346733342278    2.33635215838748   -0.42159336209698
O        -1.45832846470709    2.21203071777749   -0.51975830674665
C        -3.50622723180054    1.07126702609733   -0.13265149246972
C        -4.86442034868326    0.68789675617455    0.02431012580726
C        -4.82010494708614   -0.73711330643153   -0.02902088029682
C        -3.52027176816954   -1.07612106102557   -0.13496409147100
O        -2.74779079626946    0.01984789901968   -0.21054496600660
C        -2.75215785189376   -2.27696938415154   -0.05217053403824
C        -2.91603144900454   -3.59959332112600    0.13844254916669
C        -1.70650514343988   -4.21411368657237    0.10377398058149
C        -0.77436990985238   -3.14551740504397   -0.10904558876095
O        -1.45109634350573   -2.01770899047541   -0.23019442994529
C         0.58755180700247   -3.24731625313393   -0.28427266391413
C         1.56689765250172   -4.19917858789149   -0.03895412059714
C         2.75357535578751   -3.64974966016362    0.25176287088483
C         2.50126233410194   -2.28016036059696    0.06141589060634
O         1.22662041268957   -2.03165637628102   -0.33762645135658
C         3.16206230871520   -1.07935691582936    0.40247495381966
C         4.34043442107385   -0.79579895303817    0.86386511638802
C         4.39343681237874    0.66000445632285    0.79104330273063
C         3.19628182899478    1.10275987129042    0.32603500472893
O         2.36975597407914    0.00798362539753    0.13822427703175
H         3.76696476134246    4.00261988362696    0.10148789360409
H        -1.80484881116450    5.32001643395280    0.33444643692467
H        -5.64648820124444    1.34591587820439    0.16127674347797
H        -3.85176203693886   -4.05728969601517    0.23610735965460
H         1.28205971912324   -5.23398147272857    0.08840249311929
H         5.15270431920626   -1.43709122222545    1.31412498314488
H         1.09411730453178    5.36614616601779   -0.50979805715964
H        -4.11191652877870    4.34191645310866   -0.20905734750482
H        -5.71543874731445   -1.39513648065347   -0.04965890159981
H        -1.42393650139657   -5.27078738527076    0.30032132553535
H         3.82231846821319   -3.94200404309801    0.82132738253619
H         5.35799332195249    1.24157785063692    1.01115510525038
C         1.67799806896925    3.09223887281707    3.34148786609531
C         1.41747584594510    4.41502205911743    3.22370275447884
C        -0.01091018882125    4.57642991051872    3.06059853413263
C        -0.45220782722713    3.31458786527924    2.98921473384487
O         0.53107804163912    2.43839288551760    3.04438202862266
C        -1.84636930679001    2.91236549969802    3.12541156761133
C        -3.14057991800409    3.44686034450553    3.38693508184574
C        -3.99594476021983    2.39708528601300    3.38876171296838
C        -3.21641663329649    1.25416076529003    3.14359348464364
O        -1.95021790828640    1.62509108075079    3.02131579438070
C        -3.37022274939386   -0.13679150361453    3.22733149725433
C        -4.44969466776779   -0.99371720897318    3.23269716845820
C        -3.88071515583188   -2.26916972140476    3.10725344510760
C        -2.55424922121027   -2.05633563971132    3.03509980156109
O        -2.18679217158207   -0.76821572987044    3.17904846495942
C        -1.43011003348361   -2.84684565811189    2.93289733580119
C        -1.36578220035755   -4.21509629773335    2.82290090457012
C        -0.04385729818397   -4.50918679871349    2.69913517831698
C         0.69076360831027   -3.30905523582052    2.99042336659262
O        -0.20130321647017   -2.27764109322747    3.03022163827409
C         1.99766466264022   -2.87141998318452    3.33451074140305
C         3.14065757276684   -3.59054276409408    3.53096309220978
C         4.08414775216495   -2.51108955844822    3.66743559867967
C         3.50402267476395   -1.29774101250553    3.48871212053943
O         2.16321651471845   -1.56177912620314    3.27560296531085
C         3.71998667060624    0.18252444980397    3.46036893120196
C         4.71611880317435    1.18179471105885    3.35960706351863
C         4.09279713080229    2.44516623590102    3.46654771914872
C         2.76088110638801    2.21552013302725    3.61336878620029
O         2.58509533973129    0.88471144548024    3.58278021048329
H         2.14001611981402    5.28443261047470    3.24578213705080
H        -3.22013576533165    4.47506226436946    3.80117534378354
H        -5.46394063838232   -0.53260553477585    3.57228579123164
H        -2.15584714917548   -4.93249677071060    2.66585745475402
H         3.42484888726106   -4.68435346453175    3.59327476218309
H         5.79263600694203    0.76262552308489    3.37484411164118
H        -0.50786742753009    5.57962305829544    3.17654297646547
H        -5.09821107933330    2.42701566522643    3.13971542719789
H        -4.27665368138231   -3.31222350540576    2.84917163633034
H         0.61336041285680   -5.33741375369972    2.31611992033563
H         5.17211939594988   -2.55591493341754    3.90725401520589
H         4.31450496982460    3.48606027181741    3.20000342026534
C         2.36918929525713    2.22297794516813    6.65138827579126
C         2.80002401414168    3.44686207551401    6.46016970915991
C         1.59723858399693    4.22795960087809    6.28809275106038
C         0.58896647432410    3.35777151255093    6.46025947908530
O         1.06263893517031    2.15719654875588    6.69460380777737
C        -0.83888127733765    3.40553074764303    6.41914487751856
C        -1.85495024404080    4.36126055534675    6.20270032042326
C        -3.10896728783437    3.76394638923155    6.28629152118835
C        -2.83414007585062    2.42272872937730    6.41957418642603
O        -1.50094513428699    2.28789260844002    6.62359696060565
C        -3.52197279305178    1.24284789324705    6.20499421513259
C        -4.86245814737789    0.87735625236252    6.33769577709329
C        -4.90519390938419   -0.54344604777766    6.36760698526793
C        -3.50826280535004   -0.93400770135630    6.41425125766880
O        -2.77587762213022    0.11972960244221    6.25883630883257
C        -2.63700630418807   -2.14400924556740    6.41220186237569
C        -3.03890483061903   -3.42905218773172    6.21992179018033
C        -1.84093306594087   -4.19564318651007    6.11283871354153
C        -0.80957505605517   -3.29107616328662    6.18852892772808
O        -1.29098038833438   -2.06646356853112    6.34422606354272
C         0.64353476706486   -3.49173696981516    6.40542131408886
C         1.59599378738579   -4.44517641762887    6.78523484740245
C         2.83701558583843   -3.75440805824501    7.02781247951218
C         2.58913923614774   -2.38828546116353    6.83135181139451