156
 energy: -325.365818691568 gnorm: 0.003676879281 xtb: 6.4.1 (23d549d)
C         2.67807608145560    2.22636321437548    0.13182153847741
C         3.04515295455917    3.54951122383078    0.11402698955727
C         1.83937734847297    4.29504801275427    0.12397418749416
C         0.80984065321069    3.35784468235912    0.14822818993319
O         1.32840052086749    2.12598704937972    0.15533009180084
C        -0.62249238478713    3.39924376245916    0.09826129559913
C        -1.58570299746963    4.37778851539799    0.05925994137934
C        -2.83198070132138    3.70467531833030   -0.02508866054588
C        -2.53437167706314    2.34555713512670   -0.03421097838142
O        -1.20867814521913    2.17874133539900    0.04389712880653
C        -3.28408277434044    1.12451856863526   -0.08222690813295
C        -4.61021332376421    0.77757781214541   -0.14597875628603
C        -4.64759162975350   -0.64085173934367   -0.14298229775677
C        -3.32214394018098   -1.06221046957207   -0.07399558224072
O        -2.51763389913906    0.00579836898451   -0.04158354978736
C        -2.63819060650702   -2.32152743454573   -0.03593966171939
C        -3.00267720521708   -3.64319351766853    0.02984765199383
C        -1.79435290943596   -4.38576939980393    0.05188617464203
C        -0.76643205550330   -3.44815275107793   -0.01060805068413
O        -1.28836753282613   -2.21813056987144   -0.06109281162714
C         0.66636423109036   -3.48862979287491   -0.04976888982251
C         1.63178517956366   -4.46536853335833   -0.07723092605938
C         2.87941530472393   -3.79216320292480   -0.08918285553681
C         2.58193844365658   -2.43405880177635   -0.07937932333344
O         1.25359251950660   -2.26723537281985   -0.05803377836378
C         3.33131885428132   -1.21355722576117   -0.05464606460969
C         4.65821583226681   -0.86168211874443   -0.06437009668627
C         4.69295673596077    0.55463461489865    0.01969745088103
C         3.36450222274942    0.96918521182230    0.07100699023768
O         2.56184025231425   -0.10041307035851    0.02444353686326
H         4.04221588914602    3.93631337613648    0.09244538567419
H        -1.42189330008260    5.43501938605638    0.08456582107176
H        -5.44233027455443    1.44789598004321   -0.19132709867759
H        -3.99911472579742   -4.03012153910162    0.05931965219125
H         1.47065429847380   -5.52246182673853   -0.08589377660859
H         5.49128255985113   -1.53026319036100   -0.11721221061982
C         1.73273161765332    5.75539471172972    0.09327120887959
O         0.69972213153651    6.38209127454412    0.15940767307683
O         2.94196627847410    6.31647283576949   -0.01012068288759
C         3.00811680485310    7.73353023236561   -0.05947537415611
H         2.94221465221995    8.06771642085721   -1.09817715692332
H         2.19067082504575    8.17475268112064    0.51392981276751
C        -4.15677348083979    4.32299445394914   -0.10107931401884
O        -5.18786913120944    3.73821815882085   -0.32839416715324
O        -4.08170890735815    5.64444491321901    0.10300952577646
C        -5.30141978458077    6.36479015117638    0.02228938681792
H        -6.10391286501291    5.80291541837917    0.50463566543509
H        -5.56820710862390    6.53362238689850   -1.02332341836624
C        -5.84503591342414   -1.47904531353454   -0.20247275799621
O        -5.85614608964745   -2.68887698563476   -0.21004775039569
O        -6.95888054713636   -0.73929116621228   -0.23920969913573
C        -8.18086122812099   -1.45678525495480   -0.29991285714734
H        -8.26615514888617   -2.13956737431781    0.54865339285640
H        -8.23491395041491   -2.03929075551545   -1.22225966625161
C        -1.67288626884337   -5.83881159070242    0.16337556195585
O        -0.63415121546973   -6.44809640712988    0.29146751742749
O        -2.86843280389969   -6.43596115082372    0.11633242335165
C        -2.86464677968511   -7.84916906231131    0.23395952195044
H        -2.22969978245973   -8.29426341280497   -0.53524201487434
H        -2.48860849395632   -8.14844986962443    1.21477120920447
C         4.20634885127316   -4.40791352365999   -0.02920069852604
O         5.25651911338355   -3.82303482878429   -0.14658241150238
O         4.11851250996490   -5.72739638716007    0.17847965439261
C         5.35197594412933   -6.41940347154694    0.29088301024620
H         5.89738709503705   -6.07615370952480    1.17250800928512
H         5.96838773721313   -6.24431075935466   -0.59334599888634
C         5.88384608055726    1.40480400809823    0.09394718005797
O         5.86268416559767    2.60878456317339    0.21128690406628
O         7.00684618803249    0.68838481096613    0.01659156645828
C         8.22762318897693    1.41294700610107    0.11428046207631
H         8.12540401736273    2.38743985062483   -0.36658160580342
H         8.47892617552799    1.55661504016983    1.16747134980328
H         3.96925422442085    8.01186622800894    0.36864014587335
H        -5.12864572030567    7.31281218007493    0.52580594216804
H        -8.97066733299656   -0.71072960333256   -0.27343922592423
H        -3.89661053679092   -8.16649958191945    0.10923072308834
H         5.10109880975390   -7.47296072998334    0.38239260086153
H         8.98462032417716    0.81199346998145   -0.38452193580080
C         2.95125730489424    5.62796410758071    3.11505093841434
C         2.82573686047218    6.99484082289646    3.15099439897748
C         1.43311462373851    7.26510637776593    3.17471788202268
C         0.80146561699963    6.02577273313068    3.15127119127152
O         1.72218455540692    5.05575056255720    3.11424686011102
C        -0.55392442572284    5.56254200633324    3.14898296853280
C        -1.79630997030031    6.14313237649528    3.20594194512580
C        -2.73180897253024    5.07724531059375    3.18678627830722
C        -1.98052313235212    3.90712494863085    3.11966054181849
O        -0.67814677641701    4.21498545207491    3.10081768265396
C        -2.25425569108068    2.49961754911797    3.07834589339519
C        -3.37290408219800    1.70223258549632    3.07918728106532
C        -2.90445264732978    0.36341166405950    3.02759389969965
C        -1.51417773669367    0.44369288879406    2.99342932552161
O        -1.14160314569657    1.72674016784786    3.02599433370728
C        -0.42933433304918   -0.49266597480052    2.97561180367226
C        -0.30646026012428   -1.86058133923356    2.97519221099143
C         1.08448779190175   -2.13333393806897    3.01089893995051
C         1.71682023807584   -0.89268761136668    3.03300183904327
O         0.79771986907087    0.07747788580370    3.01122574022255
C         3.07288291380181   -0.42946170296064    3.08874138807669
C         4.31686406025492   -1.00972119364016    3.07399066664615
C         5.25216474431339    0.05709680030527    3.11360108330946
C         4.50076248516682    1.22782961685318    3.14845678254069
O         3.19765254869702    0.92003768147012    3.13695418526277
C         4.77314982265131    2.63465258388308    3.14487722653474
C         5.89221446256140    3.42906087923713    3.11839866685459
C         5.42593261864096    4.76762119462064    3.08325469662076
C         4.03590526683728    4.69077828693712    3.09945797434781
O         3.66078555637654    3.40786305291266    3.13778397673157
H         3.62461607116776    7.70595133992013    3.15899330809711
H        -2.00752745164609    7.19024134634197    3.25641551908111
H        -4.39011895083888    2.03143021836430    3.10588224175500
H        -1.10297591043837   -2.57429737464001    2.95933667276171
H         4.53281705158172   -2.05615136656538    3.02947101330515
H         6.90923082893127    3.09967592616261    3.11888311155932
C         0.80128341445873    8.58584571968250    3.18489958264854
O        -0.37088356144423    8.80721570583957    3.36904013121023
O         1.70442823179737    9.55303926094004    2.95649972701032
C         1.20151649906391   10.87900925302510    2.94342042359510
H         0.45218377824459   10.99366529486748    2.15712535156954
H         0.74029331147958   11.12118693972856    3.90322362063811
C        -4.18815066538495    5.19198663483985    3.25788629661727
O        -4.96221874952094    4.26723475050217    3.18089582289958
O        -4.56545340399611    6.46594411272891    3.43224107009182
C        -5.95455285415167    6.70946794246075    3.58842721230658
H        -6.21227629036725    6.68683351491236    4.65026897354284
H        -6.53551719441361    5.94743563722033    3.06449714589054
C        -3.72036191013179   -0.85158182552026    3.02673209181390
O        -3.29050798938614   -1.98001056428954    2.95231052719545
O        -5.02355031623113   -0.56625749634059    3.12577689914610
C        -5.90538779421932   -1.67747972541057    3.17528085191703
H        -5.82149696840605   -2.18042404086841    4.14148646459707
H        -5.66564115921344   -2.39332482372797    2.38618050360867
C         1.70920872534489   -3.45910280277480    2.99224304438694
O         2.90214240647285   -3.65828289079772    2.93842850908075
O         0.78642830192813   -4.42204492221642    3.02679169632551
C         1.22941286720922   -5.77202397076433    2.95418446881070
H         2.28846370838110   -5.80367442316383    2.68714358403219
H         1.07381798926241   -6.24531223921207    3.92600973778829
C         6.70852793353249   -0.07389517315356    3.05081829337842
O         7.49811731773402    0.84060609284843    3.12764207486616
O         7.06808278648042   -1.34853298163823    2.88904142669709
C         8.45534071486478   -1.60439364755819    2.74132003205484
H         9.02750756258404   -1.06166027671983    3.49697829252530
H         8.78677394084542   -1.29297079141322    1.74867380077995
C         6.25009923367078    5.97475830075230    3.01011763588381
O         5.83152379966668    7.10426532243148    2.90105720731329
O         7.55395956102108    5.67960834088194    3.07945644724053
C         8.44485351024337    6.78079898605538    3.01010073007793
H         8.33681769037578    7.29859890344031    2.05462433136679
H         8.23907258210703    7.48836880556944    3.81646239337648
H         2.05528015390375   11.52470007043386    2.75560455127438
H        -6.15299311798336    7.69828910791088    3.18000886044867
H        -6.90596350588062   -1.27290813750661    3.04589143542711
H         0.63164407412459   -6.26727084524245    2.18908833767820
H         8.58044725075188   -2.67783569436951    2.85924244292786
H         9.44534830509285    6.36812750652055    3.10953404084256
156
 energy: -325.138269172287 gnorm: 0.382593935422 xtb: 6.4.1 (23d549d)
C         2.64038369510477    2.27427264664283    0.35508927009739
C         2.97621136974033    3.62006379393462    0.39418627023908
C         1.74706803135536    4.32741785754975    0.32427783779647
C         0.75854226622247    3.35589896176735    0.21647903175633
O         1.28178295907173    2.15168136830959    0.20526345303116
C        -0.65936252909024    3.34041990546337    0.17378439993364
C        -1.62462098482525    4.27606572832868    0.25126181177790
C        -2.86579631420938    3.62789707513704    0.03791043789566
C        -2.56987033019871    2.32635580571512   -0.26001160661477
O        -1.21901853428935    2.12139662831190   -0.12472429857589
C        -3.34187913984183    1.14249932452767   -0.32480677844099
C        -4.63421745676364    0.76884260004093   -0.41388692687229
C        -4.61047550740149   -0.67365090992202   -0.28394506122396
C        -3.26238680689623   -1.02063741347833   -0.10844323416848
O        -2.53517407204323    0.09977279239411   -0.12529749712013
C        -2.56654543176938   -2.24411770507699   -0.02846160221242
C        -2.99366702052960   -3.54938167186919    0.20475886565763
C        -1.79732477543342   -4.34049279890649    0.18674956949283
C        -0.71477675684008   -3.49393507787657   -0.11103628128312
O        -1.22452562811719   -2.22209490720609   -0.21507861634796
C         0.70347445580728   -3.48388717879191   -0.19684404373764
C         1.68321278966627   -4.46408727206248   -0.18198132751971
C         2.88763003676366   -3.73554287811007   -0.10049143023812
C         2.55973138296763   -2.35873150379311   -0.09614750772248
O         1.21969396684657   -2.26636379106382   -0.11742563538746
C         3.26880293816448   -1.11274815849742   -0.11351149893163
C         4.61209143724818   -0.80297151380917   -0.32319815293336
C         4.66665944740264    0.61067483622607   -0.06761502569156
C         3.39555027214309    1.05220147947355    0.21528674922228
O         2.57032344273147   -0.01399805282651    0.15236332389996
H         3.92721111154723    3.97026842140998    0.32052836822072
H        -1.52010639813884    5.33808439718011    0.34537489025917
H        -5.42839597990204    1.46444639394817   -0.53527854924951
H        -4.00313860491557   -3.85462821788236    0.29295943562800
H         1.48383675207071   -5.49276982930947   -0.02464642936730
H         5.31629841469037   -1.55338310628900   -0.56494610299187
C         1.67833679942963    5.75967212068295    0.30403244002480
O         0.67647349342343    6.46514313125053    0.28944329717696
O         2.93422681080581    6.29137709467990    0.20940390688568
C         3.00931196916596    7.63854567028301   -0.18267252515987
H         2.97082067952194    7.74097396589755   -1.28985871537945
H         2.41832395309070    8.29708604311120    0.48130500422600
C        -4.14500415130352    4.27871156990864    0.01377624889886
O        -5.14873918971932    3.67217136407742   -0.26907368815972
O        -4.10676366685604    5.55651906304496    0.28289471846797
C        -5.33141615723260    6.32794088549919    0.03780086379053
H        -5.97175809548029    6.23981376033178    0.84894230291816
H        -5.71385916309321    6.14011472794785   -0.91731749502464
C        -5.76702585713752   -1.57979684433948   -0.16761991322750
O        -5.80329752731413   -2.78098218046382    0.02208747187817
O        -6.88421310253042   -0.78706709685487   -0.39846513259132
C        -8.04734756224655   -1.58629591210692   -0.42754398421579
H        -8.61080997872354   -1.60049088173417    0.49010769667845
H        -7.84323269709199   -2.56875274573950   -0.69225340001039
C        -1.74105260438454   -5.83629267866442    0.29085726191337
O        -0.66917347765673   -6.35196623165159    0.44894373925611
O        -2.94072947955217   -6.44448551187665    0.18510629534712
C        -2.96229107348561   -7.80648256568785    0.40916125127406
H        -2.20292511377527   -8.30138905946521   -0.31983269482481
H        -2.60135873579583   -8.02381431321853    1.48949689658795
C         4.19228733904989   -4.36822271816410    0.00428897366652
O         5.25220686902551   -3.88357203632676   -0.33115593437086
O         4.00630114148822   -5.61285171508945    0.45015379488339
C         5.12650122761581   -6.50799469063363    0.22200164749786
H         5.79930344152275   -6.23256821764209    1.06463842858631
H         5.43374085696844   -6.32680416815634   -0.78657833945450
C         5.85550701752825    1.50454917159016    0.05929157527476
O         5.76147096293449    2.66417170125637    0.39338131124543
O         7.00702296397971    0.84341930277087   -0.15141133723207
C         8.15261572826471    1.62224300515997    0.13331438286573
H         8.38452806103482    2.25762324992345   -0.66686691436024
H         7.98485568723184    2.17315395816019    1.04302458781534
H         4.08091497944121    7.92492983543431    0.02491893758849
H        -4.90468215773006    7.32540997511794    0.09885864743871
H        -8.67994262548079   -1.13259220693213   -1.15071974842512
H        -4.04014097679292   -8.12399370316847    0.15667383915282
H         4.74823544186080   -7.48101507250335    0.58978465634159
H         9.04005540246853    0.95913184156576    0.28010415361396
C         2.95945646598998    5.56841514771570    2.92003023242574
C         2.87548256417967    6.96931308460517    2.96209306009964
C         1.46214705696571    7.24318591493448    3.02501963763572
C         0.78649241605672    6.00596023012287    3.12440073642446
O         1.65855632385238    5.02795819743026    3.02254977043867
C        -0.59630223602471    5.60155542500466    3.14981465089869
C        -1.85895961660373    6.19245440264792    3.05148724583645
C        -2.77181229053907    5.07957044275738    3.02870846838071
C        -1.98269591531806    3.91300773481364    3.10461645594321
O        -0.69710870710960    4.22121989928290    3.21404931537930
C        -2.27968805183950    2.46199787072167    3.09347044277042
C        -3.37950299172122    1.66650619025018    3.16527281206235
C        -2.85847371258361    0.33717586706554    3.11268333384657
C        -1.49395483735681    0.44670372651919    2.87500497879644
O        -1.16950230078301    1.72615179666387    2.89774657166464
C        -0.45110778637077   -0.48610357736311    2.78691941449418
C        -0.36174988122148   -1.89528566410082    2.78317690540557
C         1.03549152139691   -2.20207343748730    2.96675585805722
C         1.69674276877612   -1.01076537302383    3.04546266113970
O         0.80741652788717   -0.02273533799584    2.97766545540722
C         3.05003518851287   -0.52934464558858    3.12192838352409
C         4.34362802014924   -1.06029710649331    3.04747830219776
C         5.19366977289272    0.03192136798908    3.16095236852174
C         4.42562883952852    1.18714289953386    3.28515168727671
O         3.09658191947623    0.85885035092651    3.26799287974502
C         4.78146062157785    2.59630925298778    3.24661849519701
C         5.95302538964335    3.39056949459771    3.35009816794074
C         5.51056251411835    4.71336958691845    3.12816625241596
C         4.06044987833744    4.64852560604656    2.93996784947616
O         3.73530147735227    3.38606993810881    2.96996508566242
H         3.63601589228838    7.62027296486553    3.01860613154798
H        -2.08816167898037    7.22424805106188    3.07449947944505
H        -4.39635735603494    1.89146615290354    3.02185102268657
H        -1.18085025386822   -2.47807344659519    2.82895878227719
H         4.71229852211075   -2.04682293111484    3.03203574210058
H         6.94287990337234    3.17606449934628    3.45865825688049
C         0.86624257301957    8.56176779171943    3.07188890008707
O        -0.33713972575350    8.80591742415915    3.18311650786734
O         1.77439849954422    9.57773286880076    2.93448998477611
C         1.15212626271593   10.87499042379102    2.95663939254923
H         0.51214602540445   11.14286535623540    2.07679559254862
H         0.32814725264716   10.97524230195534    3.68248566589524
C        -4.27147623122160    5.28422111698895    3.13993896456302
O        -5.11803868886125    4.40161815500811    3.28868913393691
O        -4.58929371965187    6.58271134164701    3.22677167018258
C        -5.80681549648196    6.97580142539402    3.86731874788306
H        -5.80711367970899    6.37875632095309    4.77206463645246
H        -6.64250401835253    6.58095251627522    3.23786561055779
C        -3.67738687382622   -0.88359385652958    3.23121033087530
O        -3.16738933811414   -1.95708791107553    3.09398416832305
O        -4.98321499020328   -0.66276974899463    3.35494492408552
C        -5.89905881967780   -1.65073957761364    2.93123958753410
H        -6.30764926423762   -2.17992835823116    3.79948746753996
H        -5.32989816181637   -2.47221386474688    2.36049235034503
C         1.69824107884058   -3.54593172077341    3.04929051641324
O         2.93183173116568   -3.60302129802725    3.07972783465701
O         0.86549038270712   -4.56944180093618    3.11210166330190
C         1.44687566600226   -5.82610760019506    2.69713529596777
H         2.48579791334000   -5.67955617934053    2.43804382885603
H         1.40896318935906   -6.61785260221811    3.47718749610515
C         6.67112313150739   -0.16646752429908    3.05589323317610
O         7.40691170788977    0.78677132955012    3.06501449550348
O         7.13962467585675   -1.43568327092787    2.88573262927617
C         8.56700093420836   -1.65580404002716    2.75517388005836
H         9.04264466790636   -1.07217247250151    3.58235779038870
H         8.82486541312018   -0.99117065840896    1.90337152912939
C         6.33525488482773    5.91411027106071    3.13625882910145
O         5.88138183903443    7.03325098509534    3.10094626382051
O         7.68261583738053    5.69777090007674    3.04066293042731
C         8.45556628932941    6.90360661476065    2.95471145692918
H         7.91931698975336    7.75798958754569    2.33250640268022
H         8.75961017351272    7.33655753269858    3.98527741880596
H         1.95437767929662   11.61385115910023    3.17502292508700
H        -5.71293401154294    8.03585230761022    3.95870627807598
H        -6.64228637485414   -1.12455968740198    2.37178230510355
H         0.96432391050866   -6.15412006907659    1.75116684141221
H         8.68818241358630   -2.70100040559992    2.54633928428599
H         9.39762781074457    6.60298317780275    2.36762523360542
156
 energy: -325.151162395032 gnorm: 0.369285441933 xtb: 6.4.1 (23d549d)
C         2.64498563087623    2.24238212692198    0.37819333114314
C         3.00768823161678    3.59305526580055    0.41069920935100
C         1.77796051911964    4.31283647139484    0.40899402460780
C         0.73232186088741    3.41941051011269    0.35962585616593
O         1.25200716872664    2.18590953395448    0.39253574051047
C        -0.68825184620297    3.46567804589636    0.15307422632913
C        -1.67797495116582    4.40230474349991    0.21172585853772
C        -2.88193538510233    3.68992458416214    0.00510565954924
C        -2.53176445023593    2.37653647950110   -0.29241000778011
O        -1.15949702014703    2.24270623619105   -0.20229927213562
C        -3.24514403470246    1.12479452132005   -0.36988963300064
C        -4.58399194970662    0.77978074517683   -0.42404757321437
C        -4.61564583520232   -0.63914291207598   -0.34348638731760
C        -3.33268076042168   -1.08276127876866   -0.22329789936888
O        -2.46034343920799   -0.00349205160436   -0.30385533054550
C        -2.70768824992728   -2.38191826939959   -0.03560862141456
C        -2.93849925113100   -3.72080648881203    0.20068917348867
C        -1.72624793610804   -4.43674071130830    0.16419195436150
C        -0.80471007951946   -3.44969783609305   -0.09797415784105
O        -1.37982009318148   -2.23688402652312   -0.17325162085135
C         0.63292488694473   -3.40137974423884   -0.20358114001782
C         1.63194823986445   -4.36518156896457   -0.22555793119784
C         2.88959687420028   -3.70807262033003   -0.18411044015978
C         2.58845834029799   -2.34793330547836   -0.23179148109187
O         1.24966752925421   -2.15374813558580   -0.24039252461728
C         3.35081530690840   -1.11584801850251   -0.09930995397031
C         4.66215965540092   -0.75868944229690   -0.25296399807543
C         4.65303379325292    0.66956427571673   -0.06970778051438
C         3.33378133742842    1.04259218774008    0.18762628081365
O         2.58475836854041   -0.06511354914113    0.16084954219325
H         3.96261849059881    3.98922952480709    0.41164857896897
H        -1.54193314507739    5.45511654117748    0.44173672217831
H        -5.33407766472407    1.51586350781801   -0.60290923071701
H        -3.85551365156542   -4.11304803490232    0.49036998964768
H         1.39647372000492   -5.39765346853451   -0.21539101559434
H         5.48987464265887   -1.38563227436270   -0.42907929494796
C         1.68456306217473    5.74802180699255    0.26975844149564
O         0.67511510965829    6.36529010539954    0.23440482182728
O         2.86761568967272    6.25446388664440    0.01809123420694
C         3.02683906663702    7.62549524166685   -0.26531968294909
H         2.89275215181522    7.80379709558377   -1.34954643222614
H         2.49408318700325    8.21112565616547    0.45703522028102
C        -4.21086654404333    4.31107867709077   -0.00962572445424
O        -5.27429950306202    3.81782992117009   -0.26141789615833
O        -4.19379908015386    5.61037984866421    0.29127478436650
C        -5.38686142255716    6.29494825020893    0.11490883574379
H        -5.84884648745756    6.52752656094857    1.13883877962158
H        -6.12230797690784    5.87406392170305   -0.69230528525862
C        -5.76071119588942   -1.54225526759544   -0.24824165444961
O        -5.64397568426079   -2.70766550763074    0.03042417209973
O        -6.91135267732506   -1.04748347860943   -0.66249424353679
C        -8.22149936484528   -1.68451558007062   -0.62698780900982
H        -8.99077558543179   -1.08377796303189   -0.07227742073397
H        -8.10820422457367   -2.72373049078380   -0.07373327867217
C        -1.67499252708706   -5.85175923593025    0.34234291617886
O        -0.65669980199449   -6.53920613526548    0.53168431200410
O        -2.91256191134007   -6.29237921879140    0.40977193615761
C        -3.00880186905532   -7.76242147018788    0.58206820590671
H        -2.24968902977303   -8.13649636565358   -0.04817039277408
H        -2.74291789404042   -7.91933894246195    1.59474809470223
C         4.21324343089386   -4.41556137701407   -0.07400069775239
O         5.22944347994185   -3.92915324840727   -0.49387704449929
O         4.05394927168019   -5.63168391918765    0.42818122197353
C         5.02869109267871   -6.61450861850259    0.34427655403803
H         5.83184763291857   -6.33396193985485    0.98007435355746
H         5.31054704159865   -6.70520817584354   -0.73842892844623
C         5.75900310918185    1.57890504917663    0.06733160001855
O         5.68198265855770    2.71151938011551    0.49982018836485
O         6.92026033836290    1.00527406568173   -0.20808367787754
C         8.11588961797243    1.76570507907968    0.11785041830220
H         8.66927963624169    2.05745042570789   -0.89430118637157
H         7.75994539524713    2.65899449712516    0.71842181976029
H         4.05680630019598    7.80459259766872   -0.12671893088977
H        -4.97598255756128    7.25140794126374   -0.23694663773576
H        -8.63050114763017   -1.86821397407532   -1.67599754846510
H        -3.98726848269061   -7.93574194443336    0.25774301282764
H         4.66287377033125   -7.50657271395064    0.80400487117019
H         8.83838678708617    1.23639671883360    0.68463644701596
C         2.99527658378820    5.60125669512199    3.09814674290210
C         2.86214343919497    6.96600207836517    2.97427304699929
C         1.48339899957777    7.20905630088775    2.94365117289653
C         0.86441864856494    5.97387195902678    3.07585173246739
O         1.78669101360674    5.03854914463261    3.10562684306702
C        -0.47614278874661    5.50970685919491    2.99297118261739
C        -1.71061223331307    6.13027016636692    2.99471304951949
C        -2.70100981213561    5.16572423912859    3.09577160751737
C        -1.95185915168977    3.92516421177149    3.03447734000139
O        -0.64239141248526    4.18050523900988    3.02864835680268
C        -2.25914307143099    2.50969531595707    3.04446478439254
C        -3.35264802823272    1.66440936128670    3.27116989835507
C        -2.86854791938022    0.31284368639448    3.12084213410206
C        -1.52212168167489    0.41208549834645    2.89448487473360
O        -1.17064006093697    1.72287788748229    2.83807751929886
C        -0.43191168891422   -0.54806367747548    2.91094198485923
C        -0.26433882555824   -1.94441153431708    2.96954641556026
C         1.14314744651502   -2.15802142164787    3.04444566567531
C         1.70923591271359   -0.88721422672214    3.06010414644836
O         0.81285354246843    0.05887553220623    2.95056935799972
C         3.04022619379211   -0.50543696237974    3.17654113111264
C         4.30270310767343   -1.07038387950947    3.10923169799170
C         5.28947386749276   -0.04448539216337    3.15106799860027
C         4.50197433739490    1.12738087763146    3.20464986649919
O         3.18720828918522    0.84353349278285    3.26784391205520
C         4.73911715957717    2.51283033891487    3.23460505107428
C         5.91177473460289    3.31136733871512    3.32290436275078
C         5.41452786245488    4.65194527311500    3.27001121129088
C         4.00074229189986    4.58458007716466    3.23552116622924
O         3.65651576914316    3.30907758348854    3.22809310989072
H         3.57438385755567    7.69575127416608    2.84073389928213
H        -1.87735839348055    7.14921071202678    2.91881117898611
H        -4.31628800690697    2.04114246047438    3.60979238965684
H        -1.00202951025517   -2.67312664730716    2.87699599255452
H         4.40166273850842   -2.10899785327441    3.09843368806561
H         6.88138664861004    2.90867295632547    3.44721457512843
C         0.76960612238261    8.47283524198220    3.01035820130473
O        -0.39237131852698    8.64532160960622    3.06216707595825
O         1.62998814470305    9.47261917182299    2.91625335986138
C         1.20492212353778   10.86929161338277    2.95275425389602
H         0.91691085248335   11.31816140256600    2.00199771314931
H         0.27180833072947   11.09236716718623    3.48132179589582
C        -4.14162881911256    5.37878536600568    3.25336317963407
O        -4.91724395360629    4.48584694280945    3.36726420121980
O        -4.41405012304860    6.69718107338003    3.30451111835120
C        -5.61392998153935    7.09116871049944    3.98237256224066
H        -5.85723229743504    6.22815366263136    4.62921160797937
H        -6.41009144658722    7.20335514734882    3.29455650252024
C        -3.70388532465405   -0.91067998114762    3.17436740944724
O        -3.24906389853923   -2.05813613656014    3.06160764538830
O        -4.95852521260588   -0.59818520055712    3.21542913446687
C        -5.84634060224209   -1.70859137090158    2.97682749431952
H        -6.50233331452483   -1.75540027112378    3.86227841559892
H        -5.36517534683834   -2.63261656771909    2.77412197599027